       (-0.0000000000000000,-5.94550211566951883E-002)
            (-0.0000000000000000,-0.16409274787429384)
            (-0.0000000000000000,-0.25292972742218300)
            (-0.0000000000000000,-0.32601304703574197)
            (-0.0000000000000000,-0.38448236068956532)
            (-0.0000000000000000,-0.43004706345362126)
            (-0.0000000000000000,-0.46459735956810544)
            (-0.0000000000000000,-0.48996908957606278)
            (-0.0000000000000000,-0.50782427376418759)
            (-0.0000000000000000,-0.51960477927456006)
            (-0.0000000000000000,-0.52652741564566463)
            (-0.0000000000000000,-0.52960009258163376)
            (-0.0000000000000000,-0.52964695003858520)
            (-0.0000000000000000,-0.52733572787325467)
            (-0.0000000000000000,-0.52320390459761401)
            (-0.0000000000000000,-0.51768203527241352)
            (-0.0000000000000000,-0.51111377608732411)
            (-0.0000000000000000,-0.50377263628127078)
            (-0.0000000000000000,-0.49587575884313057)
            (-0.0000000000000000,-0.48759512909599451)
            (-0.0000000000000000,-0.47906662157393681)
            (-0.0000000000000000,-0.47039726495933609)
            (-0.0000000000000000,-0.46167105711964473)
            (-0.0000000000000000,-0.45295361075319329)
            (-0.0000000000000000,-0.44429586142448385)
            (-0.0000000000000000,-0.43573702668722919)
            (-0.0000000000000000,-0.42730696838248405)
            (-0.0000000000000000,-0.41902807986168350)
            (-0.0000000000000000,-0.41091679516273066)
            (-0.0000000000000000,-0.40298479724963415)
            (-0.0000000000000000,-0.39523998650283793)
            (-0.0000000000000000,-0.38768725798335102)
            (-0.0000000000000000,-0.38032912595566393)
            (-0.0000000000000000,-0.37316622621355949)
            (-0.0000000000000000,-0.36619772047710919)
            (-0.0000000000000000,-0.35942162217008050)
            (-0.0000000000000000,-0.35283505896665485)
            (-0.0000000000000000,-0.34643448439435942)
            (-0.0000000000000000,-0.34021584832249041)
            (-0.0000000000000000,-0.33417473421515231)
            (-0.0000000000000000,-0.32830646947782949)
            (-0.0000000000000000,-0.32260621399172973)
            (-0.0000000000000000,-0.31706903094475614)
            (-0.0000000000000000,-0.31168994327986244)
            (-0.0000000000000000,-0.30646397844985324)
            (-0.0000000000000000,-0.30138620366025271)
            (-0.0000000000000000,-0.29645175337333579)
            (-0.0000000000000000,-0.29165585051680137)
            (-0.0000000000000000,-0.28699382257404488)
            (-0.0000000000000000,-0.28246111351703135)
            (-0.0000000000000000,-0.27805329236742060)
            (-0.0000000000000000,-0.27376605902894163)
            (-0.0000000000000000,-0.26959524791773382)
            (-0.0000000000000000,-0.26553682982241728)
            (-0.0000000000000000,-0.26158691234798731)
            (-0.0000000000000000,-0.25774173923398769)
            (-0.0000000000000000,-0.25399768878520618)
            (-0.0000000000000000,-0.25035127161022747)
            (-0.0000000000000000,-0.24679912782788532)
            (-0.0000000000000000,-0.24333802387258530)
            (-0.0000000000000000,-0.23996484900550538)
            (-0.0000000000000000,-0.23667661161891032)
            (-0.0000000000000000,-0.23347043540449575)
            (-0.0000000000000000,-0.23034355544319890)
            (-0.0000000000000000,-0.22729331426277641)
            (-0.0000000000000000,-0.22431715790025797)
            (-0.0000000000000000,-0.22141263199878325)
            (-0.0000000000000000,-0.21857737796206964)
            (-0.0000000000000000,-0.21580912918458262)
            (-0.0000000000000000,-0.21310570737123141)
            (-0.0000000000000000,-0.21046501895690808)
            (-0.0000000000000000,-0.20788505163332294)
            (-0.0000000000000000,-0.20536387098823725)
            (-0.0000000000000000,-0.20289961726028433)
            (-0.0000000000000000,-0.20049050221101400)
            (-0.0000000000000000,-0.19813480611454390)
            (-0.0000000000000000,-0.19583087486419651)
            (-0.0000000000000000,-0.19357711719470203)
            (-0.0000000000000000,-0.19137200201792076)
            (-0.0000000000000000,-0.18921405586955412)
            (-0.0000000000000000,-0.18710186046394373)
            (-0.0000000000000000,-0.18503405035378928)
            (-0.0000000000000000,-0.18300931069142065)
            (-0.0000000000000000,-0.18102637508813563)
            (-0.0000000000000000,-0.17908402356803932)
            (-0.0000000000000000,-0.17718108061279067)
            (-0.0000000000000000,-0.17531641329366671)
            (-0.0000000000000000,-0.17348892948738623)
            (-0.0000000000000000,-0.17169757617218903)
            (-0.0000000000000000,-0.16994133780073867)
            (-0.0000000000000000,-0.16821923474650072)
            (-0.0000000000000000,-0.16653032182034419)
            (-0.0000000000000000,-0.16487368685421411)
            (-0.0000000000000000,-0.16324844934883215)
            (-0.0000000000000000,-0.16165375918249081)
            (-0.0000000000000000,-0.16008879537811863)
            (-0.0000000000000000,-0.15855276492590673)
            (-0.0000000000000000,-0.15704490165889740)
            (-0.0000000000000000,-0.15556446517904685)
            (-0.0000000000000000,-0.15411073983138093)
            (-0.0000000000000000,-0.15268303372397027)
            (-0.0000000000000000,-0.15128067779155199)
            (-0.0000000000000000,-0.14990302490072674)
            (-0.0000000000000000,-0.14854944899475503)
            (-0.0000000000000000,-0.14721934427607067)
            (-0.0000000000000000,-0.14591212442471824)
            (-0.0000000000000000,-0.14462722185100677)
            (-0.0000000000000000,-0.14336408698075614)
            (-0.0000000000000000,-0.14212218757158945)
            (-0.0000000000000000,-0.14090100805880118)
            (-0.0000000000000000,-0.13970004892940327)
            (-0.0000000000000000,-0.13851882612301872)
            (-0.0000000000000000,-0.13735687045835954)
            (-0.0000000000000000,-0.13621372708408652)
            (-0.0000000000000000,-0.13508895495290940)
            (-0.0000000000000000,-0.13398212631784118)
            (-0.0000000000000000,-0.13289282624957510)
            (-0.0000000000000000,-0.13182065217400310)
            (-0.0000000000000000,-0.13076521342894415)
            (-0.0000000000000000,-0.12972613083919535)
            (-0.0000000000000000,-0.12870303630906479)
            (-0.0000000000000000,-0.12769557243158450)
            (-0.0000000000000000,-0.12670339211364279)
            (-0.0000000000000000,-0.12572615821631214)
            (-0.0000000000000000,-0.12476354320968444)
            (-0.0000000000000000,-0.12381522884155916)
            (-0.0000000000000000,-0.12288090581936235)
            (-0.0000000000000000,-0.12196027350470388)
            (-0.0000000000000000,-0.12105303962001045)
            (-0.0000000000000000,-0.12015891996669777)
            (-0.0000000000000000,-0.11927763815437256)
            (-0.0000000000000000,-0.11840892534057890)
            (-0.0000000000000000,-0.11755251998062678)
            (-0.0000000000000000,-0.11670816758706341)
            (-0.0000000000000000,-0.11587562049836828)
            (-0.0000000000000000,-0.11505463765647309)
            (-0.0000000000000000,-0.11424498439272712)
            (-0.0000000000000000,-0.11344643222194550)
            (-0.0000000000000000,-0.11265875864419611)
            (-0.0000000000000000,-0.11188174695399612)
            (-0.0000000000000000,-0.11111518605660514)
            (-0.0000000000000000,-0.11035887029111616)
            (-0.0000000000000000,-0.10961259926005947)
            (-0.0000000000000000,-0.10887617766524840)
            (-0.0000000000000000,-0.10814941514960714)
            (-0.0000000000000000,-0.10743212614473399)
            (-0.0000000000000000,-0.10672412972396383)
            (-0.0000000000000000,-0.10602524946070491)
            (-0.0000000000000000,-0.10533531329183492)
            (-0.0000000000000000,-0.10465415338595110)
            (-0.0000000000000000,-0.10398160601627851)
            (-0.0000000000000000,-0.10331751143804922)
            (-0.0000000000000000,-0.10266171377017347)
            (-0.0000000000000000,-0.10201406088103217)
            (-0.0000000000000000,-0.10137440427822721)
            (-0.0000000000000000,-0.10074259900213335)
            (-0.0000000000000000,-0.10011850352310281)
       (-0.0000000000000000,-9.95019796421793279E-002)
       (-0.0000000000000000,-9.88928923951854916E-002)
       (-0.0000000000000000,-9.82911099600527610E-002)
       (-0.0000000000000000,-9.76965035672686111E-002)
       (-0.0000000000000000,-9.71089474133220720E-002)
       (-0.0000000000000000,-9.65283185770324653E-002)
       (-0.0000000000000000,-9.59544969386520175E-002)
       (-0.0000000000000000,-9.53873651016373947E-002)
       (-0.0000000000000000,-9.48268083169894610E-002)
       (-0.0000000000000000,-9.42727144100651976E-002)
       (-0.0000000000000000,-9.37249737097692742E-002)
       (-0.0000000000000000,-9.31834789800370655E-002)
       (-0.0000000000000000,-9.26481253535241384E-002)
       (-0.0000000000000000,-9.21188102674212472E-002)
       (-0.0000000000000000,-9.15954334013166643E-002)
       (-0.0000000000000000,-9.10778966170314175E-002)
       (-0.0000000000000000,-9.05661039003554241E-002)
       (-0.0000000000000000,-9.00599613046162012E-002)
       (-0.0000000000000000,-8.95593768960138981E-002)
       (-0.0000000000000000,-8.90642607006594117E-002)
       (-0.0000000000000000,-8.85745246532550212E-002)
       (-0.0000000000000000,-8.80900825473588944E-002)
       (-0.0000000000000000,-8.76108499871776775E-002)
       (-0.0000000000000000,-8.71367443408333914E-002)
       (-0.0000000000000000,-8.66676846950528573E-002)
       (-0.0000000000000000,-8.62035918112301347E-002)
       (-0.0000000000000000,-8.57443880828141214E-002)
       (-0.0000000000000000,-8.52899974939757277E-002)
       (-0.0000000000000000,-8.48403455795103401E-002)
       (-0.0000000000000000,-8.43953593859333440E-002)
       (-0.0000000000000000,-8.39549674337280033E-002)
       (-0.0000000000000000,-8.35190996807064073E-002)
       (-0.0000000000000000,-8.30876874864460435E-002)
       (-0.0000000000000000,-8.26606635777655252E-002)
       (-0.0000000000000000,-8.22379620152047658E-002)
       (-0.0000000000000000,-8.18195181604760013E-002)
       (-0.0000000000000000,-8.14052686448533680E-002)
       (-0.0000000000000000,-8.09951513384700728E-002)
       (-0.0000000000000000,-8.05891053204929042E-002)
       (-0.0000000000000000,-8.01870708501457585E-002)
       (-0.0000000000000000,-7.97889893385539534E-002)
       (-0.0000000000000000,-7.93948033213829757E-002)
       (-0.0000000000000000,-7.90044564322456566E-002)
       (-0.0000000000000000,-7.86178933768530708E-002)
       (-0.0000000000000000,-7.82350599078853043E-002)
       (-0.0000000000000000,-7.78559028005589293E-002)
       (-0.0000000000000000,-7.74803698288689530E-002)
       (-0.0000000000000000,-7.71084097424841741E-002)
       (-0.0000000000000000,-7.67399722442746179E-002)
       (-0.0000000000000000,-7.63750079684518829E-002)
       (-0.0000000000000000,-7.60134684593027077E-002)
       (-0.0000000000000000,-7.56553061504973007E-002)
       (-0.0000000000000000,-7.53004743449547376E-002)
       (-0.0000000000000000,-7.49489271952480246E-002)
       (-0.0000000000000000,-7.46006196845321878E-002)
       (-0.0000000000000000,-7.42555076079792903E-002)
       (-0.0000000000000000,-7.39135475547050835E-002)
       (-0.0000000000000000,-7.35746968901719450E-002)
       (-0.0000000000000000,-7.32389137390539319E-002)
       (-0.0000000000000000,-7.29061569685499067E-002)
       (-0.0000000000000000,-7.25763861721312048E-002)
       (-0.0000000000000000,-7.22495616537108115E-002)
       (-0.0000000000000000,-7.19256444122214206E-002)
       (-0.0000000000000000,-7.16045961265903974E-002)
       (-0.0000000000000000,-7.12863791410996428E-002)
       (-0.0000000000000000,-7.09709564511190744E-002)
       (-0.0000000000000000,-7.06582916892028040E-002)
       (-0.0000000000000000,-7.03483491115373394E-002)
       (-0.0000000000000000,-7.00410935847315536E-002)
       (-0.0000000000000000,-6.97364905729383616E-002)
       (-0.0000000000000000,-6.94345061252987783E-002)
       (-0.0000000000000000,-6.91351068636987393E-002)
       (-0.0000000000000000,-6.88382599708299292E-002)
       (-0.0000000000000000,-6.85439331785458045E-002)
       (-0.0000000000000000,-6.82520947565044694E-002)
       (-0.0000000000000000,-6.79627135010900940E-002)
       (-0.0000000000000000,-6.76757587246053227E-002)
       (-0.0000000000000000,-6.73912002447264874E-002)
       (-0.0000000000000000,-6.71090083742149762E-002)
       (-0.0000000000000000,-6.68291539108768345E-002)
       (-0.0000000000000000,-6.65516081277642974E-002)
       (-0.0000000000000000,-6.62763427636120089E-002)
       (-0.0000000000000000,-6.60033300135020595E-002)
       (-0.0000000000000000,-6.57325425197507751E-002)
       (-0.0000000000000000,-6.54639533630117926E-002)
       (-0.0000000000000000,-6.51975360535893417E-002)
       (-0.0000000000000000,-6.49332645229556416E-002)
       (-0.0000000000000000,-6.46711131154675128E-002)
       (-0.0000000000000000,-6.44110565802761825E-002)
       (-0.0000000000000000,-6.41530700634254936E-002)
       (-0.0000000000000000,-6.38971291001333430E-002)
       (-0.0000000000000000,-6.36432096072512693E-002)
       (-0.0000000000000000,-6.33912878758977338E-002)
       (-0.0000000000000000,-6.31413405642602399E-002)
       (-0.0000000000000000,-6.28933446905620003E-002)
       (-0.0000000000000000,-6.26472776261885189E-002)
       (-0.0000000000000000,-6.24031170889704015E-002)
       (-0.0000000000000000,-6.21608411366176630E-002)
       (-0.0000000000000000,-6.19204281603020976E-002)
       (-0.0000000000000000,-6.16818568783835536E-002)
       (-0.0000000000000000,-6.14451063302765901E-002)
       (-0.0000000000000000,-6.12101558704536280E-002)
       (-0.0000000000000000,-6.09769851625813972E-002)
       (-0.0000000000000000,-6.07455741737869953E-002)
       (-0.0000000000000000,-6.05159031690504223E-002)
       (-0.0000000000000000,-6.02879527057202727E-002)
       (-0.0000000000000000,-6.00617036281494016E-002)
       (-0.0000000000000000,-5.98371370624477192E-002)
       (-0.0000000000000000,-5.96142344113490194E-002)
       (-0.0000000000000000,-5.93929773491890522E-002)
       (-0.0000000000000000,-5.91733478169918156E-002)
       (-0.0000000000000000,-5.89553280176618455E-002)
       (-0.0000000000000000,-5.87389004112794100E-002)
       (-0.0000000000000000,-5.85240477104961784E-002)
       (-0.0000000000000000,-5.83107528760291455E-002)
       (-0.0000000000000000,-5.80989991122499230E-002)
       (-0.0000000000000000,-5.78887698628675895E-002)
       (-0.0000000000000000,-5.76800488067022304E-002)
       (-0.0000000000000000,-5.74728198535475673E-002)
       (-0.0000000000000000,-5.72670671401199344E-002)
       (-0.0000000000000000,-5.70627750260920413E-002)
       (-0.0000000000000000,-5.68599280902090110E-002)
       (-0.0000000000000000,-5.66585111264850394E-002)
       (-0.0000000000000000,-5.64585091404785494E-002)
       (-0.0000000000000000,-5.62599073456441015E-002)
       (-0.0000000000000000,-5.60626911597592037E-002)
       (-0.0000000000000000,-5.58668462014240697E-002)
       (-0.0000000000000000,-5.56723582866328962E-002)
       (-0.0000000000000000,-5.54792134254146752E-002)
       (-0.0000000000000000,-5.52873978185421805E-002)
       (-0.0000000000000000,-5.50968978543073390E-002)
       (-0.0000000000000000,-5.49077001053613831E-002)
       (-0.0000000000000000,-5.47197913256186191E-002)
       (-0.0000000000000000,-5.45331584472218828E-002)
       (-0.0000000000000000,-5.43477885775685773E-002)
       (-0.0000000000000000,-5.41636689963958251E-002)
       (-0.0000000000000000,-5.39807871529231834E-002)
       (-0.0000000000000000,-5.37991306630519958E-002)
       (-0.0000000000000000,-5.36186873066196307E-002)
       (-0.0000000000000000,-5.34394450247077102E-002)
       (-0.0000000000000000,-5.32613919170029093E-002)
       (-0.0000000000000000,-5.30845162392092687E-002)
       (-0.0000000000000000,-5.29088064005106620E-002)
       (-0.0000000000000000,-5.27342509610825433E-002)
       (-0.0000000000000000,-5.25608386296516697E-002)
       (-0.0000000000000000,-5.23885582611028078E-002)
       (-0.0000000000000000,-5.22173988541313611E-002)
       (-0.0000000000000000,-5.20473495489409410E-002)
       (-0.0000000000000000,-5.18783996249847570E-002)
       (-0.0000000000000000,-5.17105384987500971E-002)
       (-0.0000000000000000,-5.15437557215846567E-002)
       (-0.0000000000000000,-5.13780409775640018E-002)
       (-0.0000000000000000,-5.12133840813991659E-002)
       (-0.0000000000000000,-5.10497749763837091E-002)
       (-0.0000000000000000,-5.08872037323789550E-002)
       (-0.0000000000000000,-5.07256605438370228E-002)
       (-0.0000000000000000,-5.05651357278606300E-002)
       (-0.0000000000000000,-5.04056197222988583E-002)
       (-0.0000000000000000,-5.02471030838781418E-002)
       (-0.0000000000000000,-5.00895764863677415E-002)
       (-0.0000000000000000,-4.99330307187790465E-002)
       (-0.0000000000000000,-4.97774566835977109E-002)
       (-0.0000000000000000,-4.96228453950482706E-002)
       (-0.0000000000000000,-4.94691879773902707E-002)
       (-0.0000000000000000,-4.93164756632454987E-002)
       (-0.0000000000000000,-4.91646997919553755E-002)
       (-0.0000000000000000,-4.90138518079681132E-002)
       (-0.0000000000000000,-4.88639232592549058E-002)
       (-0.0000000000000000,-4.87149057957545900E-002)
       (-0.0000000000000000,-4.85667911678460962E-002)
       (-0.0000000000000000,-4.84195712248482527E-002)
       (-0.0000000000000000,-4.82732379135462630E-002)
       (-0.0000000000000000,-4.81277832767443431E-002)
       (-0.0000000000000000,-4.79831994518439969E-002)
       (-0.0000000000000000,-4.78394786694473842E-002)
       (-0.0000000000000000,-4.76966132519852509E-002)
       (-0.0000000000000000,-4.75545956123689870E-002)
       (-0.0000000000000000,-4.74134182526662687E-002)
       (-0.0000000000000000,-4.72730737627997319E-002)
       (-0.0000000000000000,-4.71335548192684112E-002)
       (-0.0000000000000000,-4.69948541838912867E-002)
       (-0.0000000000000000,-4.68569647025726330E-002)
       (-0.0000000000000000,-4.67198793040886073E-002)
       (-0.0000000000000000,-4.65835909988947527E-002)
       (-0.0000000000000000,-4.64480928779539906E-002)
       (-0.0000000000000000,-4.63133781115846327E-002)
       (-0.0000000000000000,-4.61794399483280646E-002)
       (-0.0000000000000000,-4.60462717138356570E-002)
       (-0.0000000000000000,-4.59138668097746963E-002)
       (-0.0000000000000000,-4.57822187127526481E-002)
       (-0.0000000000000000,-4.56513209732597389E-002)
       (-0.0000000000000000,-4.55211672146292184E-002)
       (-0.0000000000000000,-4.53917511320151568E-002)
       (-0.0000000000000000,-4.52630664913872965E-002)
       (-0.0000000000000000,-4.51351071285427327E-002)
       (-0.0000000000000000,-4.50078669481339885E-002)
       (-0.0000000000000000,-4.48813399227132939E-002)
       (-0.0000000000000000,-4.47555200917926291E-002)
       (-0.0000000000000000,-4.46304015609193666E-002)
       (-0.0000000000000000,-4.45059785007670128E-002)
       (-0.0000000000000000,-4.43822451462410339E-002)
       (-0.0000000000000000,-4.42591957955992266E-002)
       (-0.0000000000000000,-4.41368248095865279E-002)
       (-0.0000000000000000,-4.40151266105838074E-002)
       (-0.0000000000000000,-4.38940956817706618E-002)
       (-0.0000000000000000,-4.37737265663016503E-002)
       (-0.0000000000000000,-4.36540138664959013E-002)
       (-0.0000000000000000,-4.35349522430397498E-002)
       (-0.0000000000000000,-4.34165364142022545E-002)
       (-0.0000000000000000,-4.32987611550632451E-002)
       (-0.0000000000000000,-4.31816212967537430E-002)
       (-0.0000000000000000,-4.30651117257084756E-002)
       (-0.0000000000000000,-4.29492273829303259E-002)
       (-0.0000000000000000,-4.28339632632664669E-002)
       (-0.0000000000000000,-4.27193144146958553E-002)
       (-0.0000000000000000,-4.26052759376281120E-002)
       (-0.0000000000000000,-4.24918429842133724E-002)
       (-0.0000000000000000,-4.23790107576629271E-002)
       (-0.0000000000000000,-4.22667745115806598E-002)
       (-0.0000000000000000,-4.21551295493048025E-002)
       (-0.0000000000000000,-4.20440712232599961E-002)
       (-0.0000000000000000,-4.19335949343193903E-002)
       (-0.0000000000000000,-4.18236961311767644E-002)
       (-0.0000000000000000,-4.17143703097281673E-002)
       (-0.0000000000000000,-4.16056130124632800E-002)
       (-0.0000000000000000,-4.14974198278660472E-002)
       (-0.0000000000000000,-4.13897863898245039E-002)
       (-0.0000000000000000,-4.12827083770497608E-002)
       (-0.0000000000000000,-4.11761815125036776E-002)
       (-0.0000000000000000,-4.10702015628354317E-002)
       (-0.0000000000000000,-4.09647643378265730E-002)
       (-0.0000000000000000,-4.08598656898444823E-002)
       (-0.0000000000000000,-4.07555015133041140E-002)
       (-0.0000000000000000,-4.06516677441379135E-002)
       (-0.0000000000000000,-4.05483603592736302E-002)
       (-0.0000000000000000,-4.04455753761200215E-002)
       (-0.0000000000000000,-4.03433088520602293E-002)
       (-0.0000000000000000,-4.02415568839527560E-002)
       (-0.0000000000000000,-4.01403156076398718E-002)
       (-0.0000000000000000,-4.00395811974633489E-002)
       (-0.0000000000000000,-3.99393498657872950E-002)
       (-0.0000000000000000,-3.98396178625281885E-002)
       (-0.0000000000000000,-3.97403814746916939E-002)
       (-0.0000000000000000,-3.96416370259164708E-002)
       (-0.0000000000000000,-3.95433808760244990E-002)
       (-0.0000000000000000,-3.94456094205781344E-002)
       (-0.0000000000000000,-3.93483190904435967E-002)
       (-0.0000000000000000,-3.92515063513607931E-002)
       (-0.0000000000000000,-3.91551677035194834E-002)
       (-0.0000000000000000,-3.90592996811414475E-002)
       (-0.0000000000000000,-3.89638988520689122E-002)
       (-0.0000000000000000,-3.88689618173587159E-002)
       (-0.0000000000000000,-3.87744852108824686E-002)
       (-0.0000000000000000,-3.86804656989324092E-002)
       (-0.0000000000000000,-3.85868999798328893E-002)
       (-0.0000000000000000,-3.84937847835574859E-002)
       (-0.0000000000000000,-3.84011168713515108E-002)
       (-0.0000000000000000,-3.83088930353599269E-002)
       (-0.0000000000000000,-3.82171100982605927E-002)
       (-0.0000000000000000,-3.81257649129026210E-002)
       (-0.0000000000000000,-3.80348543619499213E-002)
       (-0.0000000000000000,-3.79443753575297651E-002)
       (-0.0000000000000000,-3.78543248408862651E-002)
       (-0.0000000000000000,-3.77646997820387451E-002)
       (-0.0000000000000000,-3.76754971794449126E-002)
       (-0.0000000000000000,-3.75867140596687146E-002)
       (-0.0000000000000000,-3.74983474770528430E-002)
       (-0.0000000000000000,-3.74103945133957838E-002)
       (-0.0000000000000000,-3.73228522776333990E-002)
       (-0.0000000000000000,-3.72357179055247955E-002)
       (-0.0000000000000000,-3.71489885593427535E-002)
       (-0.0000000000000000,-3.70626614275681929E-002)
       (-0.0000000000000000,-3.69767337245889768E-002)
       (-0.0000000000000000,-3.68912026904028301E-002)
       (-0.0000000000000000,-3.68060655903243439E-002)
       (-0.0000000000000000,-3.67213197146959019E-002)
       (-0.0000000000000000,-3.66369623786026791E-002)
       (-0.0000000000000000,-3.65529909215913870E-002)
       (-0.0000000000000000,-3.64694027073929478E-002)
       (-0.0000000000000000,-3.63861951236488512E-002)
       (-0.0000000000000000,-3.63033655816412323E-002)
       (-0.0000000000000000,-3.62209115160266257E-002)
       (-0.0000000000000000,-3.61388303845732589E-002)
       (-0.0000000000000000,-3.60571196679018505E-002)
       (-0.0000000000000000,-3.59757768692300015E-002)
       (-0.0000000000000000,-3.58947995141198281E-002)
       (-0.0000000000000000,-3.58141851502291192E-002)
       (-0.0000000000000000,-3.57339313470657199E-002)
       (-0.0000000000000000,-3.56540356957451773E-002)
       (-0.0000000000000000,-3.55744958087516674E-002)
       (-0.0000000000000000,-3.54953093197019828E-002)
       (-0.0000000000000000,-3.54164738831127188E-002)
       (-0.0000000000000000,-3.53379871741704987E-002)
       (-0.0000000000000000,-3.52598468885052044E-002)
       (-0.0000000000000000,-3.51820507419661685E-002)
       (-0.0000000000000000,-3.51045964704013377E-002)
       (-0.0000000000000000,-3.50274818294393081E-002)
       (-0.0000000000000000,-3.49507045942741637E-002)
       (-0.0000000000000000,-3.48742625594531258E-002)
       (-0.0000000000000000,-3.47981535386670121E-002)
       (-0.0000000000000000,-3.47223753645433328E-002)
       (-0.0000000000000000,-3.46469258884420650E-002)
       (-0.0000000000000000,-3.45718029802541335E-002)
       (-0.0000000000000000,-3.44970045282024032E-002)
       (-0.0000000000000000,-3.44225284386452599E-002)
       (-0.0000000000000000,-3.43483726358827096E-002)
       (-0.0000000000000000,-3.42745350619649211E-002)
       (-0.0000000000000000,-3.42010136765032724E-002)
       (-0.0000000000000000,-3.41278064564837641E-002)
       (-0.0000000000000000,-3.40549113960827501E-002)
       (-0.0000000000000000,-3.39823265064851526E-002)
       (-0.0000000000000000,-3.39100498157047930E-002)
       (-0.0000000000000000,-3.38380793684071382E-002)
       (-0.0000000000000000,-3.37664132257341765E-002)
       (-0.0000000000000000,-3.36950494651315907E-002)
       (-0.0000000000000000,-3.36239861801780060E-002)
       (-0.0000000000000000,-3.35532214804164161E-002)
       (-0.0000000000000000,-3.34827534911877195E-002)
       (-0.0000000000000000,-3.34125803534663715E-002)
       (-0.0000000000000000,-3.33427002236979381E-002)
       (-0.0000000000000000,-3.32731112736388765E-002)
       (-0.0000000000000000,-3.32038116901980929E-002)
       (-0.0000000000000000,-3.31347996752806295E-002)
       (-0.0000000000000000,-3.30660734456331221E-002)
       (-0.0000000000000000,-3.29976312326913379E-002)
       (-0.0000000000000000,-3.29294712824294220E-002)
       (-0.0000000000000000,-3.28615918552110850E-002)
       (-0.0000000000000000,-3.27939912256425964E-002)
       (-0.0000000000000000,-3.27266676824275460E-002)
       (-0.0000000000000000,-3.26596195282234589E-002)
       (-0.0000000000000000,-3.25928450794999783E-002)
       (-0.0000000000000000,-3.25263426663990052E-002)
       (-0.0000000000000000,-3.24601106325963507E-002)
       (-0.0000000000000000,-3.23941473351651230E-002)
       (-0.0000000000000000,-3.23284511444407868E-002)
       (-0.0000000000000000,-3.22630204438877702E-002)
       (-0.0000000000000000,-3.21978536299678472E-002)
       (-0.0000000000000000,-3.21329491120098329E-002)
       (-0.0000000000000000,-3.20683053120810885E-002)
       (-0.0000000000000000,-3.20039206648604427E-002)
       (-0.0000000000000000,-3.19397936175126046E-002)
       (-0.0000000000000000,-3.18759226295641865E-002)
       (-0.0000000000000000,-3.18123061727810519E-002)
       (-0.0000000000000000,-3.17489427310472250E-002)
       (-0.0000000000000000,-3.16858308002452294E-002)
       (-0.0000000000000000,-3.16229688881377591E-002)
       (-0.0000000000000000,-3.15603555142508485E-002)
       (-0.0000000000000000,-3.14979892097583050E-002)
       (-0.0000000000000000,-3.14358685173676058E-002)
       (-0.0000000000000000,-3.13739919912071064E-002)
       (-0.0000000000000000,-3.13123581967144349E-002)
       (-0.0000000000000000,-3.12509657105264418E-002)
       (-0.0000000000000000,-3.11898131203702106E-002)
       (-0.0000000000000000,-3.11288990249554282E-002)
       (-0.0000000000000000,-3.10682220338679808E-002)
       (-0.0000000000000000,-3.10077807674648473E-002)
       (-0.0000000000000000,-3.09475738567701053E-002)
       (-0.0000000000000000,-3.08875999433721772E-002)
       (-0.0000000000000000,-3.08278576793223347E-002)
       (-0.0000000000000000,-3.07683457270342409E-002)
       (-0.0000000000000000,-3.07090627591847347E-002)
       (-0.0000000000000000,-3.06500074586157495E-002)
       (-0.0000000000000000,-3.05911785182372692E-002)
       (-0.0000000000000000,-3.05325746409315334E-002)
       (-0.0000000000000000,-3.04741945394581722E-002)
       (-0.0000000000000000,-3.04160369363605729E-002)
       (-0.0000000000000000,-3.03581005638731798E-002)
       (-0.0000000000000000,-3.03003841638299354E-002)
       (-0.0000000000000000,-3.02428864875736933E-002)
       (-0.0000000000000000,-3.01856062958667237E-002)
       (-0.0000000000000000,-3.01285423588021350E-002)
       (-0.0000000000000000,-3.00716934557163883E-002)
       (-0.0000000000000000,-3.00150583751026857E-002)
       (-0.0000000000000000,-2.99586359145254666E-002)
       (-0.0000000000000000,-2.99024248805357003E-002)
       (-0.0000000000000000,-2.98464240885872902E-002)
       (-0.0000000000000000,-2.97906323629542509E-002)
       (-0.0000000000000000,-2.97350485366489233E-002)
       (-0.0000000000000000,-2.96796714513410248E-002)
       (-0.0000000000000000,-2.96244999572776516E-002)
       (-0.0000000000000000,-2.95695329132041398E-002)
       (-0.0000000000000000,-2.95147691862857747E-002)
       (-0.0000000000000000,-2.94602076520303902E-002)
       (-0.0000000000000000,-2.94058471942118399E-002)
       (-0.0000000000000000,-2.93516867047942734E-002)
       (-0.0000000000000000,-2.92977250838572373E-002)
       (-0.0000000000000000,-2.92439612395216444E-002)
       (-0.0000000000000000,-2.91903940878764645E-002)