      (-0.21414972459870529,-2.02940804816723963E-003)
      (-0.21932934872905865,-2.03949312253877153E-003)
      (-0.21914738450174556,-2.04894807390630825E-003)
      (-0.21915037854667579,-2.05791225155140152E-003)
      (-0.21922929790927256,-2.06653310866293863E-003)
      (-0.21935007046632191,-2.07493705121690160E-003)
      (-0.21949753948877848,-2.08321951038072063E-003)
      (-0.21966362110348567,-2.09144709467328849E-003)
      (-0.21984348846617113,-2.09966414217591666E-003)
      (-0.22003402766601809,-2.10789938277280292E-003)
      (-0.22023311326180398,-2.11617119675618429E-003)
      (-0.22043923071433891,-2.12449132065853146E-003)
      (-0.22065126350027803,-2.13286730770057605E-003)
      (-0.22086836551388245,-2.14130410779347609E-003)
      (-0.22108988076078515,-2.14980506288441021E-003)
      (-0.22131529075673653,-2.15837252704212607E-003)
      (-0.22154417890658892,-2.16700825026905179E-003)
      (-0.22177620569100359,-2.17571361518815358E-003)
      (-0.22201109095648239,-2.18448978270357466E-003)
      (-0.22224860100476851,-2.19333778155326444E-003)
      (-0.22248853900397669,-2.20225856335129217E-003)
      (-0.22273073774798793,-2.21125303642980085E-003)
      (-0.22297505410749341,-2.22032208666604614E-003)
      (-0.22322136472039869,-2.22946659032233685E-003)
      (-0.22346956260414613,-2.23868742198552644E-003)
      (-0.22371955446334829,-2.24798545949998936E-003)
      (-0.22397125852844083,-2.25736158705644365E-003)
      (-0.22422460280461284,-2.26681669714970131E-003)
      (-0.22447952364106882,-2.27635169184304056E-003)
      (-0.22473596455286168,-2.28596748360773141E-003)
      (-0.22499387524366773,-2.29566499590259411E-003)
      (-0.22525321078979016,-2.30544516359481623E-003)
      (-0.22551393095450228,-2.31530893328421106E-003)
      (-0.22577599960857037,-2.32525726356899677E-003)
      (-0.22603938423782002,-2.33529112527667204E-003)
      (-0.22630405552255312,-2.34541150167434610E-003)
      (-0.22656998697658753,-2.35561938866736716E-003)
      (-0.22683715463608478,-2.36591579499174573E-003)
      (-0.22710553679015774,-2.37630174240373564E-003)
      (-0.22737511374670016,-2.38677826586860620E-003)
      (-0.22764586762808531,-2.39734641374991352E-003)
      (-0.22791778219225503,-2.40800724800005776E-003)
      (-0.22819084267554243,-2.41876184435262358E-003)
      (-0.22846503565411372,-2.42961129251679587E-003)
      (-0.22874034892146652,-2.44055669637405648E-003)
      (-0.22901677137981208,-2.45159917417727899E-003)
      (-0.22929429294346762,-2.46273985875233121E-003)
      (-0.22957290445275425,-2.47397989770217590E-003)
      (-0.22985259759701496,-2.48532045361357212E-003)
      (-0.23013336484564648,-2.49676270426634969E-003)
      (-0.23041519938616831,-2.50830784284530612E-003)
      (-0.23069809506846584,-2.51995707815473938E-003)
      (-0.23098204635451411,-2.53171163483558977E-003)
      (-0.23126704827293201,-2.54357275358526279E-003)
      (-0.23155309637782126,-2.55554169138007530E-003)
      (-0.23184018671143281,-2.56761972170037062E-003)
      (-0.23212831577022172,-2.57980813475827773E-003)
      (-0.23241748047394964,-2.59210823772818922E-003)
      (-0.23270767813749413,-2.60452135497980537E-003)
      (-0.23299890644510785,-2.61704882831397239E-003)
      (-0.23329116342685630,-2.62969201720108766E-003)
      (-0.23358444743703280,-2.64245229902222798E-003)
      (-0.23387875713434980,-2.65533106931296458E-003)
      (-0.23417409146373550,-2.66832974200979182E-003)
      (-0.23447044963958294,-2.68144974969930592E-003)
      (-0.23476783113031549,-2.69469254386998881E-003)
      (-0.23506623564414936,-2.70805959516672631E-003)
      (-0.23536566311593635,-2.72155239364792580E-003)
      (-0.23566611369500332,-2.73517244904540038E-003)
      (-0.23596758773388812,-2.74892129102680301E-003)
      (-0.23627008577789879,-2.76280046946085619E-003)
      (-0.23657360855542844,-2.77681155468516424E-003)
      (-0.23687815696895037,-2.79095613777669352E-003)
      (-0.23718373208665466,-2.80523583082497793E-003)
      (-0.23749033513465781,-2.81965226720792004E-003)
      (-0.23779796748974222,-2.83420710187030477E-003)
      (-0.23810663067258836,-2.84890201160494481E-003)
      (-0.23841632634145510,-2.86373869533650561E-003)
      (-0.23872705628627830,-2.87871887440797371E-003)
      (-0.23903882242314517,-2.89384429286982216E-003)
      (-0.23935162678913022,-2.90911671777179578E-003)
      (-0.23966547153744858,-2.92453793945737350E-003)
      (-0.23998035893292227,-2.94010977186093302E-003)
      (-0.24029629134771779,-2.95583405280753055E-003)
      (-0.24061327125734544,-2.97171264431536847E-003)
      (-0.24093130123690348,-2.98774743290093842E-003)
      (-0.24125038395753692,-3.00394032988684709E-003)
      (-0.24157052218311495,-3.02029327171231959E-003)
      (-0.24189171876709151,-3.03680822024634698E-003)
      (-0.24221397664955344,-3.05348716310360150E-003)
      (-0.24253729885442585,-3.07033211396296217E-003)
      (-0.24286168848684844,-3.08734511288879642E-003)
      (-0.24318714873068048,-3.10452822665492276E-003)
      (-0.24351368284615416,-3.12188354907129602E-003)
      (-0.24384129416764927,-3.13941320131339886E-003)
      (-0.24416998610158572,-3.15711933225437408E-003)
      (-0.24449976212442881,-3.17500411879989260E-003)
      (-0.24483062578079445,-3.19306976622574061E-003)
      (-0.24516258068165919,-3.21131850851818492E-003)
      (-0.24549563050264855,-3.22975260871707090E-003)
      (-0.24582977898242164,-3.24837435926166908E-003)
      (-0.24616502992112821,-3.26718608233937842E-003)
      (-0.24650138717894457,-3.28619013023705728E-003)
      (-0.24683885467467456,-3.30538888569528516E-003)
      (-0.24717743638442211,-3.32478476226532411E-003)
      (-0.24751713634031886,-3.34438020466886051E-003)
      (-0.24785795862931359,-3.36417768916062124E-003)
      (-0.24819990739201442,-3.38417972389368476E-003)
      (-0.24854298682158371,-3.40438884928766011E-003)
      (-0.24888720116267349,-3.42480763839960551E-003)
      (-0.24923255471041753,-3.44543869729776195E-003)
      (-0.24957905180945245,-3.46628466543806753E-003)
      (-0.24992669685299049,-3.48734821604340011E-003)
      (-0.25027549428191553,-3.50863205648563369E-003)
      (-0.25062544858392533,-3.53013892867036320E-003)
      (-0.25097656429270299,-3.55187160942444045E-003)
      (-0.25132884598711552,-3.57383291088612725E-003)
      (-0.25168229829044259,-3.59602568089795356E-003)
      (-0.25203692586963161,-3.61845280340217755E-003)
      (-0.25239273343458318,-3.64111719883891813E-003)
      (-0.25274972573744670,-3.66402182454677022E-003)
      (-0.25310790757195306,-3.68716967516593067E-003)
      (-0.25346728377275612,-3.71056378304384813E-003)
      (-0.25382785921479806,-3.73420721864318626E-003)
      (-0.25418963881268947,-3.75810309095215168E-003)
      (-0.25455262752011221,-3.78225454789704553E-003)
      (-0.25491683032922474,-3.80666477675701762E-003)
      (-0.25528225227009294,-3.83133700458087190E-003)
      (-0.25564889841013155,-3.85627449860584393E-003)
      (-0.25601677385354771,-3.88148056667825866E-003)
      (-0.25638588374081162,-3.90695855767594479E-003)
      (-0.25675623324811808,-3.93271186193226360E-003)
      (-0.25712782758687280,-3.95874391166161146E-003)
      (-0.25750067200317917,-3.98505818138630667E-003)
      (-0.25787477177732687,-4.01165818836461251E-003)
      (-0.25825013222330423,-4.03854749301979683E-003)
      (-0.25862675868829027,-4.06572969937004248E-003)
      (-0.25900465655217758,-4.09320845545894148E-003)
      (-0.25938383122707970,-4.12098745378649493E-003)
      (-0.25976428815685221,-4.14907043174029058E-003)
      (-0.26014603281661208,-4.17746117202671529E-003)
      (-0.26052907071226172,-4.20616350310183511E-003)
      (-0.26091340738001084,-4.23518129960188602E-003)
      (-0.26129904838590390,-4.26451848277290772E-003)
      (-0.26168599932534459,-4.29417902089936857E-003)
      (-0.26207426582261756,-4.32416692973141680E-003)
      (-0.26246385353041785,-4.35448627291052954E-003)
      (-0.26285476812937092,-4.38514116239310543E-003)
      (-0.26324701532755440,-4.41613575887187144E-003)
      (-0.26364060086001823,-4.44747427219447516E-003)
      (-0.26403553048830136,-4.47916096177925459E-003)
      (-0.26443180999994764,-4.51120013702743274E-003)
      (-0.26482944520801277,-4.54359615773166758E-003)
      (-0.26522844195057954,-4.57635343448036577E-003)
      (-0.26562880609025358,-4.60947642905742885E-003)
      (-0.26603054351367073,-4.64296965483699219E-003)
      (-0.26643366013099018,-4.67683767717271513E-003)
      (-0.26683816187538423,-4.71108511378118960E-003)
      (-0.26724405470253310,-4.74571663511898570E-003)
      (-0.26765134459009754,-4.78073696475287638E-003)
      (-0.26806003753720420,-4.81615087972283966E-003)
      (-0.26847013956391891,-4.85196321089719808E-003)
      (-0.26888165671070990,-4.88817884331955565E-003)
      (-0.26929459503791336,-4.92480271654695875E-003)
      (-0.26970896062519673,-4.96183982497879015E-003)
      (-0.27012475957100468,-4.99929521817581938E-003)
      (-0.27054199799201351,-5.03717400116912573E-003)
      (-0.27096068202257334,-5.07548133475805609E-003)
      (-0.27138081781414836,-5.11422243579686547E-003)
      (-0.27180241153475238,-5.15340257746968976E-003)
      (-0.27222546936838066,-5.19302708955288704E-003)
      (-0.27264999751443353,-5.23310135866474329E-003)
      (-0.27307600218714584,-5.27363082850166275E-003)
      (-0.27350348961500481,-5.31462100006046059E-003)
      (-0.27393246604016674,-5.35607743184631814E-003)
      (-0.27436293771787107,-5.39800574006580117E-003)
      (-0.27479491091585811,-5.44041159880452683E-003)
      (-0.27522839191377407,-5.48330074018898040E-003)
      (-0.27566338700258508,-5.52667895453204643E-003)
      (-0.27609990248398320,-5.57055209046174258E-003)
      (-0.27653794466979797,-5.61492605503287334E-003)
      (-0.27697751988140346,-5.65980681382101392E-003)
      (-0.27741863444913206,-5.70520039099857261E-003)
      (-0.27786129471168286,-5.75111286939252505E-003)
      (-0.27830550701553891,-5.79755039052343244E-003)
      (-0.27875127771438041,-5.84451915462551753E-003)
      (-0.27919861316851285,-5.89202542064740705E-003)
      (-0.27964751974428997,-5.94007550623338286E-003)
      (-0.28009800381354222,-5.98867578768484329E-003)
      (-0.28055007175302021,-6.03783269990177535E-003)
      (-0.28100372994383471,-6.08755273630415088E-003)
      (-0.28145898477091563,-6.13784244873305258E-003)
      (-0.28191584262246561,-6.18870844733144295E-003)
      (-0.28237430988944318,-6.24015740040467001E-003)
      (-0.28283439296502966,-6.29219603426042513E-003)
      (-0.28329609824414570,-6.34483113302848449E-003)
      (-0.28375943212293642,-6.39806953846020193E-003)
      (-0.28422440099830526,-6.45191814970786856E-003)
      (-0.28469101126744917,-6.50638392308406938E-003)
      (-0.28515926932740654,-6.56147387180147819E-003)
      (-0.28562918157463035,-6.61719506569304582E-003)
      (-0.28610075440456945,-6.67355463091333975E-003)
      (-0.28657399421128182,-6.73055974962089281E-003)
      (-0.28704890738705330,-6.78821765964254635E-003)
      (-0.28752550032204921,-6.84653565411978866E-003)
      (-0.28800377940398203,-6.90552108113807322E-003)
      (-0.28848375101780144,-6.96518134333928667E-003)
      (-0.28896542154541499,-7.02552389751849669E-003)
      (-0.28944879736542667,-7.08655625420516726E-003)
      (-0.28993388485290522,-7.14828597723006064E-003)
      (-0.29042069037917984,-7.21072068327842375E-003)
      (-0.29090922031166394,-7.27386804143039141E-003)
      (-0.29139948101370355,-7.33773577268943301E-003)
      (-0.29189147884446431,-7.40233164950010979E-003)
      (-0.29238522015884139,-7.46766349525574552E-003)
      (-0.29288071130740467,-7.53373918379762406E-003)
      (-0.29337795863637256,-7.60056663890634407E-003)
      (-0.29387696848762773,-7.66815383378686901E-003)
      (-0.29437774719875803,-7.73650879054843619E-003)
      (-0.29488030110313135,-7.80563957968049161E-003)
      (-0.29538463653001379,-7.87555431952605134E-003)
      (-0.29589075980471741,-7.94626117575393705E-003)
      (-0.29639867724878238,-8.01776836083115639E-003)
      (-0.29690839518020362,-8.09008413349694179E-003)
      (-0.29741991991368383,-8.16321679823996810E-003)
      (-0.29793325776093327,-8.23717470478005538E-003)
      (-0.29844841503100200,-8.31196624755629887E-003)
      (-0.29896539803064881,-8.38759986522260963E-003)
      (-0.29948421306475187,-8.46408404015284652E-003)
      (-0.30000486643675423,-8.54142729795668958E-003)
      (-0.30052736444914735,-8.61963820700802942E-003)
      (-0.30105171340399456,-8.69872537798755362E-003)
      (-0.30157791960348634,-8.77869746344111038E-003)
      (-0.30210598935054161,-8.85956315735525815E-003)
      (-0.30263592894943303,-8.94133119475210708E-003)
      (-0.30316774470646485,-9.02401035130452438E-003)
      (-0.30370144293067014,-9.10760944297366211E-003)
      (-0.30423702993455620,-9.19213732567031490E-003)
      (-0.30477451203487493,-9.27760289494147274E-003)
      (-0.30531389555343313,-9.36401508568396670E-003)
      (-0.30585518681793367,-9.45138287188630917E-003)
      (-0.30639839216284781,-9.53971526640061407E-003)
      (-0.30694351793031904,-9.62902132074548202E-003)
      (-0.30749057047109907,-9.71931012494186945E-003)
      (-0.30803955614550704,-9.81059080738269640E-003)
      (-0.30859048132442335,-9.90287253473779404E-003)
      (-0.30914335239030483,-9.99616451189537340E-003)
      (-0.30969817573822422,-1.00904759819409311E-002)
      (-0.31025495777693973,-1.01858162261749853E-002)
      (-0.31081370492997851,-1.02821945641704011E-002)
      (-0.31137442363674694,-1.03796203538703731E-002)
      (-0.31193712035365495,-1.04781029917277099E-002)
      (-0.31250180155526375,-1.05776519128864769E-002)
      (-0.31306847373544006,-1.06782765914063080E-002)
      (-0.31363714340853477,-1.07799865405302491E-002)
      (-0.31420781711057105,-1.08827913129963434E-002)
      (-0.31478050140043534,-1.09867005013936196E-002)
      (-0.31535520286108715,-1.10917237385623618E-002)
      (-0.31593192810077092,-1.11978706980392015E-002)
      (-0.31651068375423330,-1.13051510945468073E-002)
      (-0.31709147648394820,-1.14135746845282927E-002)
      (-0.31767431298133320,-1.15231512667259093E-002)
      (-0.31825919996798413,-1.16338906828041683E-002)
      (-0.31884614419688223,-1.17458028180164112E-002)
      (-0.31943515245362708,-1.18588976019148740E-002)
      (-0.32002623155763871,-1.19731850091032987E-002)
      (-0.32061938836336951,-1.20886750600312995E-002)
      (-0.32121462976150128,-1.22053778218298888E-002)
      (-0.32181196268013496,-1.23233034091869836E-002)
      (-0.32241139408596325,-1.24424619852618532E-002)
      (-0.32301293098544193,-1.25628637626374277E-002)
      (-0.32361658042593378,-1.26845190043090011E-002)
      (-0.32422234949685325,-1.28074380247081999E-002)
      (-0.32483024533077565,-1.29316311907603718E-002)
      (-0.32544027510455187,-1.30571089229744083E-002)
      (-0.32605244604038253,-1.31838816965624897E-002)
      (-0.32666676540689610,-1.33119600425890029E-002)
      (-0.32728324052018437,-1.34413545491459084E-002)
      (-0.32790187874484189,-1.35720758625535870E-002)
      (-0.32852268749496899,-1.37041346885843802E-002)
      (-0.32914567423515978,-1.38375417937073412E-002)
      (-0.32977084648147509,-1.39723080063523363E-002)
      (-0.33039821180239265,-1.41084442181908121E-002)
      (-0.33102777781972909,-1.42459613854318910E-002)
      (-0.33165955220956511,-1.43848705301312298E-002)
      (-0.33229354270313255,-1.45251827415108139E-002)
      (-0.33292975708768535,-1.46669091772874422E-002)
      (-0.33356820320738073,-1.48100610650082672E-002)
      (-0.33420888896410328,-1.49546497033906153E-002)
      (-0.33485182231832211,-1.51006864636652818E-002)
      (-0.33549701128990145,-1.52481827909203439E-002)
      (-0.33614446395892084,-1.53971502054444376E-002)
      (-0.33679418846648579,-1.55476003040673529E-002)
      (-0.33744619301552964,-1.56995447614968059E-002)
      (-0.33810048587161678,-1.58529953316494006E-002)
      (-0.33875707536375099,-1.60079638489750743E-002)
      (-0.33941596988517897,-1.61644622297732674E-002)
      (-0.34007717789420849,-1.63225024735004116E-002)
      (-0.34074070791503636,-1.64820966640674971E-002)
      (-0.34140656853858758,-1.66432569711273681E-002)
      (-0.34207476842337392,-1.68059956513513589E-002)
      (-0.34274531629637606,-1.69703250496952458E-002)
      (-0.34341822095395397,-1.71362576006542505E-002)
      (-0.34409349126277433,-1.73038058295083182E-002)
      (-0.34477113616079641,-1.74729823535573203E-002)
      (-0.34545116465827164,-1.76437998833482469E-002)
      (-0.34613358583880777,-1.78162712238949007E-002)
      (-0.34681840886046589,-1.79904092758921517E-002)
      (-0.34750564295691710,-1.81662270369268089E-002)
      (-0.34819529743866406,-1.83437376026872948E-002)
      (-0.34888738169430994,-1.85229541681749474E-002)
      (-0.34958190519191162,-1.87038900289201275E-002)
      (-0.35027887748039227,-1.88865585822066313E-002)
      (-0.35097830819103693,-1.90709733283086040E-002)
      (-0.35168020703907743,-1.92571478717436552E-002)
      (-0.35238458382534649,-1.94450959225480752E-002)
      (-0.35309144843803869,-1.96348312975781758E-002)
      (-0.35380081085457249,-1.98263679218445010E-002)
      (-0.35451268114352552,-2.00197198298841979E-002)
      (-0.35522706946671118,-2.02149011671789967E-002)
      (-0.35594398608133199,-2.04119261916248101E-002)
      (-0.35666344134226513,-2.06108092750615993E-002)
      (-0.35738544570445552,-2.08115649048702528E-002)
      (-0.35811000972543278,-2.10142076856460400E-002)
      (-0.35883714406794109,-2.12187523409566037E-002)
      (-0.35956685950270911,-2.14252137151942808E-002)
      (-0.36029916691132741,-2.16336067755320167E-002)
      (-0.36103407728927422,-2.18439466139936263E-002)
      (-0.36177160174904616,-2.20562484496484024E-002)
      (-0.36251175152343690,-2.22705276309411622E-002)
      (-0.36325453796895324,-2.24867996381691061E-002)
      (-0.36399997256932809,-2.27050800861172478E-002)
      (-0.36474806693919942,-2.29253847268639128E-002)
      (-0.36549883282788864,-2.31477294527695360E-002)
      (-0.36625228212331523,-2.33721302996603257E-002)
      (-0.36700842685603580,-2.35986034502204019E-002)
      (-0.36776727920339081,-2.38271652376051031E-002)
      (-0.36852885149377496,-2.40578321492891239E-002)
      (-0.36929315621100472,-2.42906208311623600E-002)
      (-0.37006020599879691,-2.45255480918877659E-002)
      (-0.37083001366533702,-2.47626309075342811E-002)
      (-0.37160259218793995,-2.50018864264988511E-002)
      (-0.37237795471777674,-2.52433319747312236E-002)
      (-0.37315611458468317,-2.54869850612751171E-002)
      (-0.37393708530202491,-2.57328633841395656E-002)
      (-0.37472088057160508,-2.59809848365137493E-002)
      (-0.37550751428859802,-2.62313675133383703E-002)
      (-0.37629700054652537,-2.64840297182469576E-002)
      (-0.37708935364222329,-2.67389899708901993E-002)
      (-0.37788458808080000,-2.69962670146541746E-002)
      (-0.37868271858058117,-2.72558798247864928E-002)
      (-0.37948376007799339,-2.75178476169402886E-002)
      (-0.38028772773241221,-2.77821898561476724E-002)
      (-0.38109463693089929,-2.80489262662330652E-002)
      (-0.38190450329286962,-2.83180768396760693E-002)
      (-0.38271734267461943,-2.85896618479323586E-002)
      (-0.38353317117370883,-2.88637018522216668E-002)
      (-0.38435200513318846,-2.91402177147899281E-002)
      (-0.38517386114562874,-2.94192306106513222E-002)
      (-0.38599875605693401,-2.97007620398164821E-002)
      (-0.38682670696990956,-2.99848338400110839E-002)
      (-0.38765773124756808,-3.02714681998877098E-002)
      (-0.38849184651613350,-3.05606876727331431E-002)
      (-0.38932907066773320,-3.08525151906724818E-002)
      (-0.39016942186271020,-3.11469740793682837E-002)
      (-0.39101291853158493,-3.14440880732139369E-002)
      (-0.39185957937657478,-3.17438813310174026E-002)
      (-0.39270942337269582,-3.20463784521700518E-002)
      (-0.39356246976836573,-3.23516044932946958E-002)
      (-0.39441873808551609,-3.26595849853638237E-002)
      (-0.39527824811916173,-3.29703459512789496E-002)
      (-0.39614101993639578,-3.32839139238983450E-002)
      (-0.39700707387478107,-3.36003159645011373E-002)
      (-0.39787643054011751,-3.39195796816700798E-002)
      (-0.39874911080352649,-3.42417332505781866E-002)
      (-0.39962513579784387,-3.45668054326578045E-002)
      (-0.40050452691327959,-3.48948255956321174E-002)
      (-0.40138730579231430,-3.52258237338848451E-002)
      (-0.40227349432379367,-3.55598304891433167E-002)
      (-0.40316311463621168,-3.58968771714464341E-002)
      (-0.40405618909012475,-3.62369957803689788E-002)
      (-0.40495274026969214,-3.65802190264695806E-002)
      (-0.40585279097329557,-3.69265803529281594E-002)
      (-0.40675636420322359,-3.72761139573371605E-002)
      (-0.40766348315439815,-3.76288548136089127E-002)
      (-0.40857417120210038,-3.79848386939568086E-002)
      (-0.40948845188868943,-3.83441021909098553E-002)
      (-0.41040634890929456,-3.87066827393145046E-002)
      (-0.41132788609645365,-3.90726186382784196E-002)
      (-0.41225308740367439,-3.94419490730064243E-002)
      (-0.41318197688793296,-3.98147141364796481E-002)
      (-0.41411457869105339,-4.01909548509239434E-002)
      (-0.41505091702000013,-4.05707131890154019E-002)
      (-0.41599101612605671,-4.09540320947660921E-002)
      (-0.41693490028287788,-4.13409555040337717E-002)
      (-0.41788259376343834,-4.17315283645965582E-002)
      (-0.41883412081585419,-4.21257966557334329E-002)
      (-0.41978950563810519,-4.25238074072498140E-002)
      (-0.42074877235164093,-4.29256087178857132E-002)
      (-0.42171194497392278,-4.33312497730458934E-002)
      (-0.42267904738986600,-4.37407808617870583E-002)
      (-0.42365010332224756,-4.41542533930007267E-002)
      (-0.42462513630107385,-4.45717199107273088E-002)
      (-0.42560416963196168,-4.49932341085388585E-002)
      (-0.42658722636353702,-4.54188508429277937E-002)
      (-0.42757432925390776,-4.58486261456396912E-002)
      (-0.42856550073624783,-4.62826172348882389E-002)
      (-0.42956076288353340,-4.67208825253945317E-002)
      (-0.43056013737247723,-4.71634816371896692E-002)
      (-0.43156364544673842,-4.76104754031278221E-002)
      (-0.43257130787942794,-4.80619258750520015E-002)
      (-0.43358314493500733,-4.85178963285643958E-002)
      (-0.43459917633063133,-4.89784512663504479E-002)
      (-0.43561942119700847,-4.94436564200115558E-002)
      (-0.43664389803885301,-4.99135787503663178E-002)
      (-0.43767262469501272,-5.03882864461807425E-002)
      (-0.43870561829836152,-5.08678489212942425E-002)
      (-0.43974289523552285,-5.13523368101145364E-002)
      (-0.44078447110653796,-5.18418219614558695E-002)
      (-0.44183036068455933,-5.23363774307036289E-002)
      (-0.44288057787567070,-5.28360774702918701E-002)
      (-0.44393513567894094,-5.33409975184900992E-002)
      (-0.44499404614678068,-5.38512141864964239E-002)
      (-0.44605732034576034,-5.43668052438466692E-002)
      (-0.44712496831793996,-5.48878496021527537E-002)
      (-0.44819699904285021,-5.54144272971913709E-002)
      (-0.44927342040020979,-5.59466194693737928E-002)
      (-0.45035423913351852,-5.64845083426315092E-002)
      (-0.45143946081457548,-5.70281772017651734E-002)
      (-0.45252908980909073,-5.75777103683081312E-002)
      (-0.45362312924344733,-5.81331931749673181E-002)
      (-0.45472158097271892,-5.86947119387101410E-002)
      (-0.45582444555007501,-5.92623539325765614E-002)
      (-0.45693172219762240,-5.98362073563024274E-002)
      (-0.45804340877879157,-6.04163613058493476E-002)
      (-0.45915950177235415,-6.10029057419424620E-002)
      (-0.46027999624815069,-6.15959314577297704E-002)
      (-0.46140488584458167,-6.21955300456778770E-002)
      (-0.46253416274794540,-6.28017938638342904E-002)
      (-0.46366781767367599,-6.34148160015852308E-002)
      (-0.46480583984951113,-6.40346902450509292E-002)
      (-0.46594821700064387,-6.46615110422635170E-002)
      (-0.46709493533688778,-6.52953734682780312E-002)
      (-0.46824597954185770,-6.59363731903719330E-002)
      (-0.46940133276418516,-6.65846064334959381E-002)
      (-0.47056097661075191,-6.72401699461359220E-002)
      (-0.47172489114193539,-6.79031609667550273E-002)
      (-0.47289305486882199,-6.85736771909826459E-002)
      (-0.47406544475234008,-6.92518167397194184E-002)
      (-0.47524203620429423,-6.99376781283264498E-002)
      (-0.47642280309017215,-7.06313602370677585E-002)
      (-0.47760771773367949,-7.13329622829695226E-002)
      (-0.47879675092287383,-7.20425837932602425E-002)
      (-0.47998987191785308,-7.27603245805490267E-002)
      (-0.48118704845974647,-7.34862847198953922E-002)
      (-0.48238824678101833,-7.42205645279161996E-002)
      (-0.48359343161679930,-7.49632645440690137E-002)
      (-0.48480256621716833,-7.57144855142431461E-002)
      (-0.48601561236016622,-7.64743283767769233E-002)
      (-0.48723253036535075,-7.72428942510134386E-002)
      (-0.48845327910770880,-7.80202844284911268E-002)
      (-0.48967781603170230,-7.88066003668569381E-002)
      (-0.49090609716520883,-7.96019436865710583E-002)
      (-0.49213807713316526,-8.04064161704651365E-002)
      (-0.49337370917063056,-8.12201197661919505E-002)
      (-0.49461294513505027,-8.20431565915969996E-002)
      (-0.49585573551746115,-8.28756289430196275E-002)
      (-0.49710202945236953,-8.37176393065178354E-002)
      (-0.49835177472604769,-8.45692903719912903E-002)
      (-0.49960491778298383,-8.54306850501608400E-002)
      (-0.50086140373022003,-8.63019264923425566E-002)
      (-0.50212117633929854,-8.71831181129374272E-002)
      (-0.50338417804556734,-8.80743636145376874E-002)
      (-0.50465034994455726,-8.89757670155340713E-002)
      (-0.50591963178520349,-8.98874326800859214E-002)
      (-0.50719196195959892,-9.08094653503016130E-002)
      (-0.50846727748909648,-9.17419701804550458E-002)
      (-0.50974551400643531,-9.26850527730470192E-002)
      (-0.51102660573372471,-9.36388192165003158E-002)
      (-0.51231048545600610,-9.46033761242646432E-002)
      (-0.51359708449018793,-9.55788306750819799E-002)
      (-0.51488633264915051,-9.65652906541541178E-002)
      (-0.51617815820080015,-9.75628644949315116E-002)
      (-0.51747248782191091,-9.85716613212306442E-002)
      (-0.51876924654655421,-9.95917909893680869E-002)
           (-0.52006835770897797,-0.10062336412998683)
           (-0.52136974288077409,-0.10166649218923464)
           (-0.52267332180220616,-0.10272128746893902)
           (-0.52397901230759358,-0.10378786316541484)
           (-0.52528673024463512,-0.10486633340651688)
           (-0.52659638938762088,-0.10595681328655122)
           (-0.52790790134443133,-0.10705941889863534)
           (-0.52922117545733904,-0.10817426736408960)
           (-0.53053611869750839,-0.10930147685843487)
           (-0.53185263555329432,-0.11044116663355434)
           (-0.53317062791226089,-0.11159345703557401)
           (-0.53448999493703853,-0.11275846951800055)
           (-0.53581063293503961,-0.11393632664965206)
           (-0.53713243522214627,-0.11512715211690600)
           (-0.53845529198047226,-0.11633107071978259)
           (-0.53977909011035952,-0.11754820836137456)
           (-0.54110371307675986,-0.11877869203012853)
           (-0.54242904075020482,-0.12002264977447824)
           (-0.54375494924260470,-0.12128021066932995)
           (-0.54508131073812927,-0.12255150477388899)
           (-0.54640799331943712,-0.12383666308032620)
           (-0.54773486078963241,-0.12513581745277544)
           (-0.54906177249024568,-0.12644910055615655)
           (-0.55038858311568373,-0.12777664577432732)
           (-0.55171514252456011,-0.12911858711706398)
           (-0.55304129554836556,-0.13047505911538820)
           (-0.55436688179800564,-0.13184619670475939)
           (-0.55569173546875250,-0.13323213509567175)
           (-0.55701568514419364,-0.13463300963120339)
           (-0.55833855359979645,-0.13604895563109129)
           (-0.55966015760679233,-0.13748010822191806)
           (-0.56098030773706553,-0.13892660215303124)
           (-0.56229880816981026,-0.14038857159783438)
           (-0.56361545650076739,-0.14186614994012889)
           (-0.56493004355484366,-0.14335946954521403)
           (-0.56624235320303640,-0.14486866151549746)
           (-0.56755216218453008,-0.14639385543040809)
           (-0.56885923993496668,-0.14793517907044984)
           (-0.57016334842183491,-0.14949275812528737)
           (-0.57146424198802159,-0.15106671588580842)
           (-0.57276166720456545,-0.15265717292016637)
           (-0.57405536273370017,-0.15426424673386413)
           (-0.57534505920326673,-0.15588805141401377)
           (-0.57663047909364129,-0.15752869725796875)
           (-0.57791133663825878,-0.15918629038659807)
           (-0.57918733773896436,-0.16086093234254564)
           (-0.58045817989722992,-0.16255271967390383)
           (-0.58172355216248717,-0.16426174350378775)
           (-0.58298313509862598,-0.16598808908640558)
           (-0.58423660076989170,-0.16773183535027583)
           (-0.58548361274716720,-0.16949305442934212)
           (-0.58672382613586338,-0.17127181118280954)
           (-0.58795688762635856,-0.17306816270461617)
           (-0.58918243556810301,-0.17488215782352468)
           (-0.59040010006828836,-0.17671383659491247)
           (-0.59160950311607929,-0.17856322978540418)
           (-0.59281025873323068,-0.18043035835157534)
           (-0.59400197315193581,-0.18231523291402713)
           (-0.59518424502064005,-0.18421785322819781)
           (-0.59635666563846756,-0.18613820765334602)