            #Ek_l1_s1              Dk_l1_s1              Vk_l1_s1
  -7.350264028261E-01   -1.165133274030E+00   -2.605904767951E-01
  -4.082465585322E-01   -3.651036562198E-01    1.500611517845E-01
  -5.539808117348E-02   -5.612699572416E-01    1.850262221085E-01
   5.539808117348E-02   -5.612699572416E-01    1.850262221085E-01
   4.082465585322E-01   -3.651036562198E-01    1.500611517845E-01
   7.350264028261E-01   -1.165133274030E+00   -2.605904767951E-01
